TITLE = "Example: 3D FE-SURFACE ZONES"
VARIABLES = "X","Y","Z"
ZONE T="TRIANGLES", NODES=9, ELEMENTS=8, DATAPACKING=POINT, ZONETYPE=FETRIANGLE
0 1 0
0.382683 0.92388 0
0.270598 0.92388 0.270598
4.39466e-07 0.92388 0.382683
-0.270597 0.92388 0.270598
-0.382683 0.92388 8.78932e-07
-0.270599 0.92388 -0.270597
-1.27278e-06 0.92388 -0.382683
0.270597 0.92388 -0.270599
1 2 3
1 3 4
1 4 5
1 5 6
1 6 7
1 7 8
1 8 9
1 9 2
ZONE T="PURE-QUADS", NODES=56, ELEMENTS=48, DATAPACKING=POINT, ZONETYPE=FEQUADRILATERAL
0.382683 0.92388 0
0.270598 0.92388 0.270598
4.39466e-07 0.92388 0.382683
-0.270597 0.92388 0.270598
-0.382683 0.92388 8.78932e-07
-0.270599 0.92388 -0.270597
-1.27278e-06 0.92388 -0.382683
0.270597 0.92388 -0.270599
0.707106 0.707107 0
0.5 0.707107 0.499999
8.12028e-07 0.707107 0.707106
-0.499999 0.707107 0.500001
-0.707106 0.707107 1.62406e-06
-0.500001 0.707107 -0.499998
-2.35179e-06 0.707107 -0.707106
0.499998 0.707107 -0.500002
0.923879 0.382684 0
0.653282 0.382684 0.653281
1.06097e-06 0.382684 0.923879
-0.65328 0.382684 0.653282
-0.923879 0.382684 2.12193e-06
-0.653283 0.382684 -0.653279
-3.07276e-06 0.382684 -0.923879
0.653279 0.382684 -0.653284
1 1.14838e-06 0
0.707107 1.14838e-06 0.707106
1.14838e-06 1.14838e-06 1
-0.707106 1.14838e-06 0.707108
-1 1.14838e-06 2.29676e-06
-0.707109 1.14838e-06 -0.707105
-3.32594e-06 1.14838e-06 -1
0.707104 1.14838e-06 -0.70711
0.92388 -0.382682 0
0.653282 -0.382682 0.653282
1.06097e-06 -0.382682 0.92388
-0.653281 -0.382682 0.653283
-0.92388 -0.382682 2.12193e-06
-0.653284 -0.382682 -0.65328
-3.07277e-06 -0.382682 -0.92388
0.653279 -0.382682 -0.653284
0.707108 -0.707106 0
0.500001 -0.707106 0.500001
8.1203e-07 -0.707106 0.707108
-0.5 -0.707106 0.500002
-0.707108 -0.707106 1.62406e-06
-0.500002 -0.707106 -0.499999
-2.3518e-06 -0.707106 -0.707108
0.499999 -0.707106 -0.500003
0.382685 -0.923879 0
0.2706 -0.923879 0.270599
4.39469e-07 -0.923879 0.382685
-0.270599 -0.923879 0.2706
-0.382685 -0.923879 8.78937e-07
-0.2706 -0.923879 -0.270599
-1.27279e-06 -0.923879 -0.382685
0.270598 -0.923879 -0.2706
1 2 10 9
2 3 11 10
3 4 12 11
4 5 13 12
5 6 14 13
6 7 15 14
7 8 16 15
8 1 9 16
9 10 18 17
10 11 19 18
11 12 20 19
12 13 21 20
13 14 22 21
14 15 23 22
15 16 24 23
16 9 17 24
17 18 26 25
18 19 27 26
19 20 28 27
20 21 29 28
21 22 30 29
22 23 31 30
23 24 32 31
24 17 25 32
25 26 34 33
26 27 35 34
27 28 36 35
28 29 37 36
29 30 38 37
30 31 39 38
31 32 40 39
32 25 33 40
33 34 42 41
34 35 43 42
35 36 44 43
36 37 45 44
37 38 46 45
38 39 47 46
39 40 48 47
40 33 41 48
41 42 50 49
42 43 51 50
43 44 52 51
44 45 53 52
45 46 54 53
46 47 55 54
47 48 56 55
48 41 49 56
ZONE T="TRIANGLES", NODES=9, ELEMENTS=8, DATAPACKING=POINT, ZONETYPE=FETRIANGLE
0 -1 0
0.382685 -0.923879 0
0.2706 -0.923879 0.270599
4.39469e-07 -0.923879 0.382685
-0.270599 -0.923879 0.2706
-0.382685 -0.923879 8.78937e-07
-0.2706 -0.923879 -0.270599
-1.27279e-06 -0.923879 -0.382685
0.270598 -0.923879 -0.2706
1 2 3
1 3 4
1 4 5
1 5 6
1 6 7
1 7 8
1 8 9
1 9 2
