TITLE = "Example: 3D FE-SURFACE ZONES"
VARIABLES = "X","Y","Z"
ZONE T="TRIANGLES", NODES=9, ELEMENTS=8, DATAPACKING=POINT, ZONETYPE=FETRIANGLE
0 1 0
0.19509 0.980785 0
0.13795 0.980785 0.13795
2.24038e-07 0.980785 0.19509
-0.137949 0.980785 0.13795
-0.19509 0.980785 4.48076e-07
-0.13795 0.980785 -0.137949
-6.48857e-07 0.980785 -0.19509
0.137949 0.980785 -0.13795
1 2 3
1 3 4
1 4 5
1 5 6
1 6 7
1 7 8
1 8 9
1 9 2
ZONE T="PURE-QUADS", NODES=120, ELEMENTS=112, DATAPACKING=POINT, ZONETYPE=FEQUADRILATERAL
0.19509 0.980785 0
0.13795 0.980785 0.13795
2.24038e-07 0.980785 0.19509
-0.137949 0.980785 0.13795
-0.19509 0.980785 4.48076e-07
-0.13795 0.980785 -0.137949
-6.48857e-07 0.980785 -0.19509
0.137949 0.980785 -0.13795
0.382683 0.92388 0
0.270598 0.92388 0.270598
4.39466e-07 0.92388 0.382683
-0.270597 0.92388 0.270598
-0.382683 0.92388 8.78932e-07
-0.270599 0.92388 -0.270597
-1.27278e-06 0.92388 -0.382683
0.270597 0.92388 -0.270599
0.55557 0.83147 0
0.392847 0.83147 0.392847
6.38006e-07 0.83147 0.55557
-0.392847 0.83147 0.392848
-0.55557 0.83147 1.27601e-06
-0.392848 0.83147 -0.392846
-1.84779e-06 0.83147 -0.55557
0.392846 0.83147 -0.392849
0.707106 0.707107 0
0.5 0.707107 0.499999
8.12028e-07 0.707107 0.707106
-0.499999 0.707107 0.500001
-0.707106 0.707107 1.62406e-06
-0.500001 0.707107 -0.499998
-2.35179e-06 0.707107 -0.707106
0.499998 0.707107 -0.500002
0.831469 0.555571 0
0.587938 0.555571 0.587937
9.54844e-07 0.555571 0.831469
-0.587937 0.555571 0.587938
-0.831469 0.555571 1.90969e-06
-0.587939 0.555571 -0.587936
-2.76541e-06 0.555571 -0.831469
0.587935 0.555571 -0.58794
0.923879 0.382684 0
0.653282 0.382684 0.653281
1.06097e-06 0.382684 0.923879
-0.65328 0.382684 0.653282
-0.923879 0.382684 2.12193e-06
-0.653283 0.382684 -0.653279
-3.07276e-06 0.382684 -0.923879
0.653279 0.382684 -0.653284
0.980785 0.195091 0
0.69352 0.195091 0.693519
1.12632e-06 0.195091 0.980785
-0.693519 0.195091 0.693521
-0.980785 0.195091 2.25263e-06
-0.693522 0.195091 -0.693518
-3.26203e-06 0.195091 -0.980785
0.693517 0.195091 -0.693523
1 1.14838e-06 0
0.707107 1.14838e-06 0.707106
1.14838e-06 1.14838e-06 1
-0.707106 1.14838e-06 0.707108
-1 1.14838e-06 2.29676e-06
-0.707109 1.14838e-06 -0.707105
-3.32594e-06 1.14838e-06 -1
0.707104 1.14838e-06 -0.70711
0.980786 -0.195089 0
0.69352 -0.195089 0.69352
1.12632e-06 -0.195089 0.980786
-0.693519 -0.195089 0.693521
-0.980786 -0.195089 2.25263e-06
-0.693522 -0.195089 -0.693518
-3.26203e-06 -0.195089 -0.980786
0.693517 -0.195089 -0.693523
0.92388 -0.382682 0
0.653282 -0.382682 0.653282
1.06097e-06 -0.382682 0.92388
-0.653281 -0.382682 0.653283
-0.92388 -0.382682 2.12193e-06
-0.653284 -0.382682 -0.65328
-3.07277e-06 -0.382682 -0.92388
0.653279 -0.382682 -0.653284
0.83147 -0.555569 0
0.587939 -0.555569 0.587938
9.54845e-07 -0.555569 0.83147
-0.587937 -0.555569 0.587939
-0.83147 -0.555569 1.90969e-06
-0.58794 -0.555569 -0.587937
-2.76542e-06 -0.555569 -0.83147
0.587936 -0.555569 -0.587941
0.707108 -0.707106 0
0.500001 -0.707106 0.500001
8.1203e-07 -0.707106 0.707108
-0.5 -0.707106 0.500002
-0.707108 -0.707106 1.62406e-06
-0.500002 -0.707106 -0.499999
-2.3518e-06 -0.707106 -0.707108
0.499999 -0.707106 -0.500003
0.555572 -0.831469 0
0.392849 -0.831469 0.392848
6.38008e-07 -0.831469 0.555572
-0.392848 -0.831469 0.392849
-0.555572 -0.831469 1.27602e-06
-0.39285 -0.831469 -0.392847
-1.8478e-06 -0.831469 -0.555572
0.392847 -0.831469 -0.39285
0.382685 -0.923879 0
0.2706 -0.923879 0.270599
4.39469e-07 -0.923879 0.382685
-0.270599 -0.923879 0.2706
-0.382685 -0.923879 8.78937e-07
-0.2706 -0.923879 -0.270599
-1.27279e-06 -0.923879 -0.382685
0.270598 -0.923879 -0.2706
0.195092 -0.980785 0
0.137951 -0.980785 0.137951
2.24041e-07 -0.980785 0.195092
-0.137951 -0.980785 0.137951
-0.195092 -0.980785 4.48081e-07
-0.137952 -0.980785 -0.137951
-6.48865e-07 -0.980785 -0.195092
0.137951 -0.980785 -0.137952
1 2 10 9
2 3 11 10
3 4 12 11
4 5 13 12
5 6 14 13
6 7 15 14
7 8 16 15
8 1 9 16
9 10 18 17
10 11 19 18
11 12 20 19
12 13 21 20
13 14 22 21
14 15 23 22
15 16 24 23
16 9 17 24
17 18 26 25
18 19 27 26
19 20 28 27
20 21 29 28
21 22 30 29
22 23 31 30
23 24 32 31
24 17 25 32
25 26 34 33
26 27 35 34
27 28 36 35
28 29 37 36
29 30 38 37
30 31 39 38
31 32 40 39
32 25 33 40
33 34 42 41
34 35 43 42
35 36 44 43
36 37 45 44
37 38 46 45
38 39 47 46
39 40 48 47
40 33 41 48
41 42 50 49
42 43 51 50
43 44 52 51
44 45 53 52
45 46 54 53
46 47 55 54
47 48 56 55
48 41 49 56
49 50 58 57
50 51 59 58
51 52 60 59
52 53 61 60
53 54 62 61
54 55 63 62
55 56 64 63
56 49 57 64
57 58 66 65
58 59 67 66
59 60 68 67
60 61 69 68
61 62 70 69
62 63 71 70
63 64 72 71
64 57 65 72
65 66 74 73
66 67 75 74
67 68 76 75
68 69 77 76
69 70 78 77
70 71 79 78
71 72 80 79
72 65 73 80
73 74 82 81
74 75 83 82
75 76 84 83
76 77 85 84
77 78 86 85
78 79 87 86
79 80 88 87
80 73 81 88
81 82 90 89
82 83 91 90
83 84 92 91
84 85 93 92
85 86 94 93
86 87 95 94
87 88 96 95
88 81 89 96
89 90 98 97
90 91 99 98
91 92 100 99
92 93 101 100
93 94 102 101
94 95 103 102
95 96 104 103
96 89 97 104
97 98 106 105
98 99 107 106
99 100 108 107
100 101 109 108
101 102 110 109
102 103 111 110
103 104 112 111
104 97 105 112
105 106 114 113
106 107 115 114
107 108 116 115
108 109 117 116
109 110 118 117
110 111 119 118
111 112 120 119
112 105 113 120
ZONE T="TRIANGLES", NODES=9, ELEMENTS=8, DATAPACKING=POINT, ZONETYPE=FETRIANGLE
0 -1 0
0.195092 -0.980785 0
0.137951 -0.980785 0.137951
2.24041e-07 -0.980785 0.195092
-0.137951 -0.980785 0.137951
-0.195092 -0.980785 4.48081e-07
-0.137952 -0.980785 -0.137951
-6.48865e-07 -0.980785 -0.195092
0.137951 -0.980785 -0.137952
1 2 3
1 3 4
1 4 5
1 5 6
1 6 7
1 7 8
1 8 9
1 9 2
