TITLE = "Example: 3D FE-SURFACE ZONES"
VARIABLES = "X","Y","Z"
ZONE T="TRIANGLES", NODES=33, ELEMENTS=32, DATAPACKING=POINT, ZONETYPE=FETRIANGLE
0 1 0
0.19509 0.980785 0
0.191342 0.980785 0.0380602
0.18024 0.980785 0.0746577
0.162212 0.980785 0.108386
0.13795 0.980785 0.13795
0.108386 0.980785 0.162211
0.0746579 0.980785 0.18024
0.0380604 0.980785 0.191342
2.24038e-07 0.980785 0.19509
-0.03806 0.980785 0.191342
-0.0746575 0.980785 0.18024
-0.108386 0.980785 0.162212
-0.137949 0.980785 0.13795
-0.162211 0.980785 0.108387
-0.18024 0.980785 0.0746581
-0.191341 0.980785 0.0380606
-0.19509 0.980785 4.48076e-07
-0.191342 0.980785 -0.0380597
-0.18024 0.980785 -0.0746573
-0.162212 0.980785 -0.108386
-0.13795 0.980785 -0.137949
-0.108387 0.980785 -0.162211
-0.0746583 0.980785 -0.18024
-0.0380609 0.980785 -0.191341
-6.48857e-07 0.980785 -0.19509
0.0380595 0.980785 -0.191342
0.0746571 0.980785 -0.18024
0.108386 0.980785 -0.162212
0.137949 0.980785 -0.13795
0.162211 0.980785 -0.108387
0.180239 0.980785 -0.0746586
0.191341 0.980785 -0.0380611
1 2 3
1 3 4
1 4 5
1 5 6
1 6 7
1 7 8
1 8 9
1 9 10
1 10 11
1 11 12
1 12 13
1 13 14
1 14 15
1 15 16
1 16 17
1 17 18
1 18 19
1 19 20
1 20 21
1 21 22
1 22 23
1 23 24
1 24 25
1 25 26
1 26 27
1 27 28
1 28 29
1 29 30
1 30 31
1 31 32
1 32 33
1 33 2
ZONE T="PURE-QUADS", NODES=480, ELEMENTS=448, DATAPACKING=POINT, ZONETYPE=FEQUADRILATERAL
0.19509 0.980785 0
0.191342 0.980785 0.0380602
0.18024 0.980785 0.0746577
0.162212 0.980785 0.108386
0.13795 0.980785 0.13795
0.108386 0.980785 0.162211
0.0746579 0.980785 0.18024
0.0380604 0.980785 0.191342
2.24038e-07 0.980785 0.19509
-0.03806 0.980785 0.191342
-0.0746575 0.980785 0.18024
-0.108386 0.980785 0.162212
-0.137949 0.980785 0.13795
-0.162211 0.980785 0.108387
-0.18024 0.980785 0.0746581
-0.191341 0.980785 0.0380606
-0.19509 0.980785 4.48076e-07
-0.191342 0.980785 -0.0380597
-0.18024 0.980785 -0.0746573
-0.162212 0.980785 -0.108386
-0.13795 0.980785 -0.137949
-0.108387 0.980785 -0.162211
-0.0746583 0.980785 -0.18024
-0.0380609 0.980785 -0.191341
-6.48857e-07 0.980785 -0.19509
0.0380595 0.980785 -0.191342
0.0746571 0.980785 -0.18024
0.108386 0.980785 -0.162212
0.137949 0.980785 -0.13795
0.162211 0.980785 -0.108387
0.180239 0.980785 -0.0746586
0.191341 0.980785 -0.0380611
0.382683 0.92388 0
0.37533 0.92388 0.0746577
0.353553 0.92388 0.146446
0.31819 0.92388 0.212607
0.270598 0.92388 0.270598
0.212608 0.92388 0.318189
0.146447 0.92388 0.353553
0.0746582 0.92388 0.37533
4.39466e-07 0.92388 0.382683
-0.0746573 0.92388 0.37533
-0.146446 0.92388 0.353553
-0.212607 0.92388 0.31819
-0.270597 0.92388 0.270598
-0.318189 0.92388 0.212608
-0.353553 0.92388 0.146447
-0.37533 0.92388 0.0746586
-0.382683 0.92388 8.78932e-07
-0.37533 0.92388 -0.0746569
-0.353554 0.92388 -0.146446
-0.31819 0.92388 -0.212606
-0.270599 0.92388 -0.270597
-0.212608 0.92388 -0.318189
-0.146448 0.92388 -0.353553
-0.0746591 0.92388 -0.37533
-1.27278e-06 0.92388 -0.382683
0.0746564 0.92388 -0.37533
0.146445 0.92388 -0.353554
0.212606 0.92388 -0.31819
0.270597 0.92388 -0.270599
0.318188 0.92388 -0.212609
0.353553 0.92388 -0.146448
0.37533 0.92388 -0.0746595
0.55557 0.83147 0
0.544895 0.83147 0.108386
0.51328 0.83147 0.212607
0.46194 0.83147 0.308658
0.392847 0.83147 0.392847
0.308658 0.83147 0.461939
0.212608 0.83147 0.513279
0.108387 0.83147 0.544895
6.38006e-07 0.83147 0.55557
-0.108386 0.83147 0.544895
-0.212607 0.83147 0.51328
-0.308657 0.83147 0.46194
-0.392847 0.83147 0.392848
-0.461939 0.83147 0.308659
-0.513279 0.83147 0.212608
-0.544895 0.83147 0.108387
-0.55557 0.83147 1.27601e-06
-0.544895 0.83147 -0.108385
-0.51328 0.83147 -0.212606
-0.46194 0.83147 -0.308657
-0.392848 0.83147 -0.392846
-0.30866 0.83147 -0.461939
-0.212609 0.83147 -0.513279
-0.108388 0.83147 -0.544894
-1.84779e-06 0.83147 -0.55557
0.108384 0.83147 -0.544895
0.212606 0.83147 -0.51328
0.308656 0.83147 -0.461941
0.392846 0.83147 -0.392849
0.461938 0.83147 -0.30866
0.513279 0.83147 -0.21261
0.544894 0.83147 -0.108389
0.707106 0.707107 0
0.69352 0.707107 0.13795
0.653281 0.707107 0.270598
0.587938 0.707107 0.392847
0.5 0.707107 0.499999
0.392848 0.707107 0.587937
0.270598 0.707107 0.653281
0.13795 0.707107 0.693519
8.12028e-07 0.707107 0.707106
-0.137949 0.707107 0.69352
-0.270597 0.707107 0.653282
-0.392846 0.707107 0.587938
-0.499999 0.707107 0.500001
-0.587937 0.707107 0.392848
-0.653281 0.707107 0.270599
-0.693519 0.707107 0.137951
-0.707106 0.707107 1.62406e-06
-0.69352 0.707107 -0.137948
-0.653282 0.707107 -0.270596
-0.587939 0.707107 -0.392846
-0.500001 0.707107 -0.499998
-0.392849 0.707107 -0.587936
-0.2706 0.707107 -0.65328
-0.137952 0.707107 -0.693519
-2.35179e-06 0.707107 -0.707106
0.137947 0.707107 -0.69352
0.270596 0.707107 -0.653282
0.392845 0.707107 -0.587939
0.499998 0.707107 -0.500002
0.587936 0.707107 -0.39285
0.65328 0.707107 -0.270601
0.693519 0.707107 -0.137953
0.831469 0.555571 0
0.815493 0.555571 0.162211
0.768177 0.555571 0.318189
0.691342 0.555571 0.461939
0.587938 0.555571 0.587937
0.46194 0.555571 0.691341
0.31819 0.555571 0.768177
0.162212 0.555571 0.815493
9.54844e-07 0.555571 0.831469
-0.162211 0.555571 0.815493
-0.318188 0.555571 0.768178
-0.461938 0.555571 0.691342
-0.587937 0.555571 0.587938
-0.691341 0.555571 0.461941
-0.768177 0.555571 0.318191
-0.815492 0.555571 0.162213
-0.831469 0.555571 1.90969e-06
-0.815493 0.555571 -0.16221
-0.768178 0.555571 -0.318187
-0.691343 0.555571 -0.461938
-0.587939 0.555571 -0.587936
-0.461942 0.555571 -0.69134
-0.318192 0.555571 -0.768176
-0.162214 0.555571 -0.815492
-2.76541e-06 0.555571 -0.831469
0.162209 0.555571 -0.815493
0.318187 0.555571 -0.768179
0.461937 0.555571 -0.691343
0.587935 0.555571 -0.58794
0.691339 0.555571 -0.461943
0.768176 0.555571 -0.318193
0.815492 0.555571 -0.162215
0.923879 0.382684 0
0.906127 0.382684 0.18024
0.853553 0.382684 0.353553
0.768178 0.382684 0.513279
0.653282 0.382684 0.653281
0.51328 0.382684 0.768177
0.353554 0.382684 0.853553
0.180241 0.382684 0.906127
1.06097e-06 0.382684 0.923879
-0.180239 0.382684 0.906127
-0.353552 0.382684 0.853554
-0.513279 0.382684 0.768178
-0.65328 0.382684 0.653282
-0.768177 0.382684 0.513281
-0.853552 0.382684 0.353555
-0.906127 0.382684 0.180242
-0.923879 0.382684 2.12193e-06
-0.906128 0.382684 -0.180238
-0.853554 0.382684 -0.353551
-0.768179 0.382684 -0.513278
-0.653283 0.382684 -0.653279
-0.513282 0.382684 -0.768176
-0.353556 0.382684 -0.853552
-0.180243 0.382684 -0.906126
-3.07276e-06 0.382684 -0.923879
0.180237 0.382684 -0.906128
0.35355 0.382684 -0.853554
0.513277 0.382684 -0.76818
0.653279 0.382684 -0.653284
0.768175 0.382684 -0.513283
0.853552 0.382684 -0.353557
0.906126 0.382684 -0.180244
0.980785 0.195091 0
0.96194 0.195091 0.191342
0.906127 0.195091 0.37533
0.815493 0.195091 0.544895
0.69352 0.195091 0.693519
0.544896 0.195091 0.815493
0.375331 0.195091 0.906127
0.191343 0.195091 0.961939
1.12632e-06 0.195091 0.980785
-0.19134 0.195091 0.96194
-0.375329 0.195091 0.906128
-0.544894 0.195091 0.815494
-0.693519 0.195091 0.693521
-0.815492 0.195091 0.544896
-0.906126 0.195091 0.375332
-0.961939 0.195091 0.191344
-0.980785 0.195091 2.25263e-06
-0.96194 0.195091 -0.191339
-0.906128 0.195091 -0.375328
-0.815494 0.195091 -0.544893
-0.693522 0.195091 -0.693518
-0.544897 0.195091 -0.815491
-0.375333 0.195091 -0.906126
-0.191345 0.195091 -0.961939
-3.26203e-06 0.195091 -0.980785
0.191338 0.195091 -0.96194
0.375327 0.195091 -0.906129
0.544892 0.195091 -0.815495
0.693517 0.195091 -0.693523
0.815491 0.195091 -0.544899
0.906126 0.195091 -0.375334
0.961939 0.195091 -0.191346
1 1.14838e-06 0
0.980785 1.14838e-06 0.19509
0.92388 1.14838e-06 0.382683
0.83147 1.14838e-06 0.55557
0.707107 1.14838e-06 0.707106
0.555571 1.14838e-06 0.831469
0.382684 1.14838e-06 0.923879
0.195091 1.14838e-06 0.980785
1.14838e-06 1.14838e-06 1
-0.195089 1.14838e-06 0.980786
-0.382682 1.14838e-06 0.92388
-0.555569 1.14838e-06 0.83147
-0.707106 1.14838e-06 0.707108
-0.831469 1.14838e-06 0.555572
-0.923879 1.14838e-06 0.382685
-0.980785 1.14838e-06 0.195092
-1 1.14838e-06 2.29676e-06
-0.980786 1.14838e-06 -0.195088
-0.923881 1.14838e-06 -0.382681
-0.831471 1.14838e-06 -0.555568
-0.707109 1.14838e-06 -0.707105
-0.555573 1.14838e-06 -0.831468
-0.382686 1.14838e-06 -0.923878
-0.195094 1.14838e-06 -0.980785
-3.32594e-06 1.14838e-06 -1
0.195087 1.14838e-06 -0.980786
0.38268 1.14838e-06 -0.923881
0.555567 1.14838e-06 -0.831472
0.707104 1.14838e-06 -0.70711
0.831467 1.14838e-06 -0.555574
0.923878 1.14838e-06 -0.382687
0.980784 1.14838e-06 -0.195095
0.980786 -0.195089 0
0.96194 -0.195089 0.191342
0.906128 -0.195089 0.37533
0.815494 -0.195089 0.544895
0.69352 -0.195089 0.69352
0.544896 -0.195089 0.815493
0.375331 -0.195089 0.906127
0.191343 -0.195089 0.96194
1.12632e-06 -0.195089 0.980786
-0.191341 -0.195089 0.96194
-0.375329 -0.195089 0.906128
-0.544894 -0.195089 0.815494
-0.693519 -0.195089 0.693521
-0.815492 -0.195089 0.544897
-0.906127 -0.195089 0.375332
-0.96194 -0.195089 0.191344
-0.980786 -0.195089 2.25263e-06
-0.961941 -0.195089 -0.191339
-0.906129 -0.195089 -0.375328
-0.815495 -0.195089 -0.544893
-0.693522 -0.195089 -0.693518
-0.544898 -0.195089 -0.815492
-0.375333 -0.195089 -0.906127
-0.191345 -0.195089 -0.961939
-3.26203e-06 -0.195089 -0.980786
0.191338 -0.195089 -0.961941
0.375327 -0.195089 -0.906129
0.544892 -0.195089 -0.815496
0.693517 -0.195089 -0.693523
0.815491 -0.195089 -0.544899
0.906126 -0.195089 -0.375334
0.961939 -0.195089 -0.191346
0.92388 -0.382682 0
0.906128 -0.382682 0.18024
0.853554 -0.382682 0.353553
0.768178 -0.382682 0.51328
0.653282 -0.382682 0.653282
0.513281 -0.382682 0.768178
0.353554 -0.382682 0.853554
0.180241 -0.382682 0.906128
1.06097e-06 -0.382682 0.92388
-0.180239 -0.382682 0.906128
-0.353552 -0.382682 0.853554
-0.513279 -0.382682 0.768179
-0.653281 -0.382682 0.653283
-0.768177 -0.382682 0.513282
-0.853553 -0.382682 0.353555
-0.906128 -0.382682 0.180242
-0.92388 -0.382682 2.12193e-06
-0.906128 -0.382682 -0.180238
-0.853555 -0.382682 -0.353551
-0.76818 -0.382682 -0.513278
-0.653284 -0.382682 -0.65328
-0.513283 -0.382682 -0.768177
-0.353556 -0.382682 -0.853553
-0.180243 -0.382682 -0.906127
-3.07277e-06 -0.382682 -0.92388
0.180237 -0.382682 -0.906129
0.35355 -0.382682 -0.853555
0.513277 -0.382682 -0.76818
0.653279 -0.382682 -0.653284
0.768176 -0.382682 -0.513284
0.853552 -0.382682 -0.353557
0.906127 -0.382682 -0.180244
0.83147 -0.555569 0
0.815494 -0.555569 0.162212
0.768179 -0.555569 0.31819
0.691343 -0.555569 0.46194
0.587939 -0.555569 0.587938
0.461941 -0.555569 0.691342
0.318191 -0.555569 0.768178
0.162213 -0.555569 0.815494
9.54845e-07 -0.555569 0.83147
-0.162211 -0.555569 0.815494
-0.318189 -0.555569 0.768179
-0.461939 -0.555569 0.691343
-0.587937 -0.555569 0.587939
-0.691342 -0.555569 0.461941
-0.768178 -0.555569 0.318191
-0.815494 -0.555569 0.162214
-0.83147 -0.555569 1.90969e-06
-0.815494 -0.555569 -0.16221
-0.768179 -0.555569 -0.318188
-0.691344 -0.555569 -0.461938
-0.58794 -0.555569 -0.587937
-0.461942 -0.555569 -0.691341
-0.318192 -0.555569 -0.768178
-0.162215 -0.555569 -0.815493
-2.76542e-06 -0.555569 -0.83147
0.162209 -0.555569 -0.815495
0.318187 -0.555569 -0.76818
0.461937 -0.555569 -0.691344
0.587936 -0.555569 -0.587941
0.69134 -0.555569 -0.461943
0.768177 -0.555569 -0.318193
0.815493 -0.555569 -0.162216
0.707108 -0.707106 0
0.693521 -0.707106 0.13795
0.653283 -0.707106 0.270598
0.587939 -0.707106 0.392848
0.500001 -0.707106 0.500001
0.392849 -0.707106 0.587938
0.270599 -0.707106 0.653282
0.137951 -0.707106 0.693521
8.1203e-07 -0.707106 0.707108
-0.137949 -0.707106 0.693521
-0.270598 -0.707106 0.653283
-0.392847 -0.707106 0.587939
-0.5 -0.707106 0.500002
-0.587938 -0.707106 0.392849
-0.653282 -0.707106 0.2706
-0.693521 -0.707106 0.137951
-0.707108 -0.707106 1.62406e-06
-0.693521 -0.707106 -0.137948
-0.653283 -0.707106 -0.270597
-0.58794 -0.707106 -0.392846
-0.500002 -0.707106 -0.499999
-0.39285 -0.707106 -0.587938
-0.2706 -0.707106 -0.653282
-0.137952 -0.707106 -0.693521
-2.3518e-06 -0.707106 -0.707108
0.137947 -0.707106 -0.693522
0.270596 -0.707106 -0.653284
0.392846 -0.707106 -0.58794
0.499999 -0.707106 -0.500003
0.587937 -0.707106 -0.392851
0.653281 -0.707106 -0.270601
0.69352 -0.707106 -0.137953
0.555572 -0.831469 0
0.544897 -0.831469 0.108387
0.513281 -0.831469 0.212608
0.461941 -0.831469 0.308659
0.392849 -0.831469 0.392848
0.308659 -0.831469 0.461941
0.212609 -0.831469 0.513281
0.108387 -0.831469 0.544896
6.38008e-07 -0.831469 0.555572
-0.108386 -0.831469 0.544897
-0.212607 -0.831469 0.513282
-0.308658 -0.831469 0.461941
-0.392848 -0.831469 0.392849
-0.46194 -0.831469 0.30866
-0.513281 -0.831469 0.212609
-0.544896 -0.831469 0.108388
-0.555572 -0.831469 1.27602e-06
-0.544897 -0.831469 -0.108385
-0.513282 -0.831469 -0.212607
-0.461942 -0.831469 -0.308658
-0.39285 -0.831469 -0.392847
-0.308661 -0.831469 -0.46194
-0.21261 -0.831469 -0.513281
-0.108389 -0.831469 -0.544896
-1.8478e-06 -0.831469 -0.555572
0.108385 -0.831469 -0.544897
0.212606 -0.831469 -0.513282
0.308657 -0.831469 -0.461942
0.392847 -0.831469 -0.39285
0.46194 -0.831469 -0.308661
0.51328 -0.831469 -0.21261
0.544896 -0.831469 -0.108389
0.382685 -0.923879 0
0.375332 -0.923879 0.0746581
0.353555 -0.923879 0.146447
0.318191 -0.923879 0.212608
0.2706 -0.923879 0.270599
0.212609 -0.923879 0.318191
0.146448 -0.923879 0.353555
0.0746586 -0.923879 0.375332
4.39469e-07 -0.923879 0.382685
-0.0746577 -0.923879 0.375332
-0.146447 -0.923879 0.353555
-0.212608 -0.923879 0.318191
-0.270599 -0.923879 0.2706
-0.318191 -0.923879 0.212609
-0.353555 -0.923879 0.146448
-0.375332 -0.923879 0.074659
-0.382685 -0.923879 8.78937e-07
-0.375332 -0.923879 -0.0746573
-0.353555 -0.923879 -0.146446
-0.318192 -0.923879 -0.212608
-0.2706 -0.923879 -0.270599
-0.21261 -0.923879 -0.318191
-0.146448 -0.923879 -0.353555
-0.0746595 -0.923879 -0.375332
-1.27279e-06 -0.923879 -0.382685
0.0746568 -0.923879 -0.375332
0.146446 -0.923879 -0.353556
0.212607 -0.923879 -0.318192
0.270598 -0.923879 -0.2706
0.31819 -0.923879 -0.21261
0.353554 -0.923879 -0.146449
0.375332 -0.923879 -0.07466
0.195092 -0.980785 0
0.191344 -0.980785 0.0380606
0.180242 -0.980785 0.0746586
0.162213 -0.980785 0.108387
0.137951 -0.980785 0.137951
0.108388 -0.980785 0.162213
0.0746588 -0.980785 0.180242
0.0380608 -0.980785 0.191344
2.24041e-07 -0.980785 0.195092
-0.0380604 -0.980785 0.191344
-0.0746584 -0.980785 0.180242
-0.108387 -0.980785 0.162214
-0.137951 -0.980785 0.137951
-0.162213 -0.980785 0.108388
-0.180242 -0.980785 0.074659
-0.191344 -0.980785 0.0380611
-0.195092 -0.980785 4.48081e-07
-0.191344 -0.980785 -0.0380602
-0.180242 -0.980785 -0.0746582
-0.162214 -0.980785 -0.108387
-0.137952 -0.980785 -0.137951
-0.108388 -0.980785 -0.162213
-0.0746592 -0.980785 -0.180242
-0.0380613 -0.980785 -0.191344
-6.48865e-07 -0.980785 -0.195092
0.0380599 -0.980785 -0.191344
0.074658 -0.980785 -0.180242
0.108387 -0.980785 -0.162214
0.137951 -0.980785 -0.137952
0.162213 -0.980785 -0.108388
0.180242 -0.980785 -0.0746594
0.191344 -0.980785 -0.0380615
1 2 34 33
2 3 35 34
3 4 36 35
4 5 37 36
5 6 38 37
6 7 39 38
7 8 40 39
8 9 41 40
9 10 42 41
10 11 43 42
11 12 44 43
12 13 45 44
13 14 46 45
14 15 47 46
15 16 48 47
16 17 49 48
17 18 50 49
18 19 51 50
19 20 52 51
20 21 53 52
21 22 54 53
22 23 55 54
23 24 56 55
24 25 57 56
25 26 58 57
26 27 59 58
27 28 60 59
28 29 61 60
29 30 62 61
30 31 63 62
31 32 64 63
32 1 33 64
33 34 66 65
34 35 67 66
35 36 68 67
36 37 69 68
37 38 70 69
38 39 71 70
39 40 72 71
40 41 73 72
41 42 74 73
42 43 75 74
43 44 76 75
44 45 77 76
45 46 78 77
46 47 79 78
47 48 80 79
48 49 81 80
49 50 82 81
50 51 83 82
51 52 84 83
52 53 85 84
53 54 86 85
54 55 87 86
55 56 88 87
56 57 89 88
57 58 90 89
58 59 91 90
59 60 92 91
60 61 93 92
61 62 94 93
62 63 95 94
63 64 96 95
64 33 65 96
65 66 98 97
66 67 99 98
67 68 100 99
68 69 101 100
69 70 102 101
70 71 103 102
71 72 104 103
72 73 105 104
73 74 106 105
74 75 107 106
75 76 108 107
76 77 109 108
77 78 110 109
78 79 111 110
79 80 112 111
80 81 113 112
81 82 114 113
82 83 115 114
83 84 116 115
84 85 117 116
85 86 118 117
86 87 119 118
87 88 120 119
88 89 121 120
89 90 122 121
90 91 123 122
91 92 124 123
92 93 125 124
93 94 126 125
94 95 127 126
95 96 128 127
96 65 97 128
97 98 130 129
98 99 131 130
99 100 132 131
100 101 133 132
101 102 134 133
102 103 135 134
103 104 136 135
104 105 137 136
105 106 138 137
106 107 139 138
107 108 140 139
108 109 141 140
109 110 142 141
110 111 143 142
111 112 144 143
112 113 145 144
113 114 146 145
114 115 147 146
115 116 148 147
116 117 149 148
117 118 150 149
118 119 151 150
119 120 152 151
120 121 153 152
121 122 154 153
122 123 155 154
123 124 156 155
124 125 157 156
125 126 158 157
126 127 159 158
127 128 160 159
128 97 129 160
129 130 162 161
130 131 163 162
131 132 164 163
132 133 165 164
133 134 166 165
134 135 167 166
135 136 168 167
136 137 169 168
137 138 170 169
138 139 171 170
139 140 172 171
140 141 173 172
141 142 174 173
142 143 175 174
143 144 176 175
144 145 177 176
145 146 178 177
146 147 179 178
147 148 180 179
148 149 181 180
149 150 182 181
150 151 183 182
151 152 184 183
152 153 185 184
153 154 186 185
154 155 187 186
155 156 188 187
156 157 189 188
157 158 190 189
158 159 191 190
159 160 192 191
160 129 161 192
161 162 194 193
162 163 195 194
163 164 196 195
164 165 197 196
165 166 198 197
166 167 199 198
167 168 200 199
168 169 201 200
169 170 202 201
170 171 203 202
171 172 204 203
172 173 205 204
173 174 206 205
174 175 207 206
175 176 208 207
176 177 209 208
177 178 210 209
178 179 211 210
179 180 212 211
180 181 213 212
181 182 214 213
182 183 215 214
183 184 216 215
184 185 217 216
185 186 218 217
186 187 219 218
187 188 220 219
188 189 221 220
189 190 222 221
190 191 223 222
191 192 224 223
192 161 193 224
193 194 226 225
194 195 227 226
195 196 228 227
196 197 229 228
197 198 230 229
198 199 231 230
199 200 232 231
200 201 233 232
201 202 234 233
202 203 235 234
203 204 236 235
204 205 237 236
205 206 238 237
206 207 239 238
207 208 240 239
208 209 241 240
209 210 242 241
210 211 243 242
211 212 244 243
212 213 245 244
213 214 246 245
214 215 247 246
215 216 248 247
216 217 249 248
217 218 250 249
218 219 251 250
219 220 252 251
220 221 253 252
221 222 254 253
222 223 255 254
223 224 256 255
224 193 225 256
225 226 258 257
226 227 259 258
227 228 260 259
228 229 261 260
229 230 262 261
230 231 263 262
231 232 264 263
232 233 265 264
233 234 266 265
234 235 267 266
235 236 268 267
236 237 269 268
237 238 270 269
238 239 271 270
239 240 272 271
240 241 273 272
241 242 274 273
242 243 275 274
243 244 276 275
244 245 277 276
245 246 278 277
246 247 279 278
247 248 280 279
248 249 281 280
249 250 282 281
250 251 283 282
251 252 284 283
252 253 285 284
253 254 286 285
254 255 287 286
255 256 288 287
256 225 257 288
257 258 290 289
258 259 291 290
259 260 292 291
260 261 293 292
261 262 294 293
262 263 295 294
263 264 296 295
264 265 297 296
265 266 298 297
266 267 299 298
267 268 300 299
268 269 301 300
269 270 302 301
270 271 303 302
271 272 304 303
272 273 305 304
273 274 306 305
274 275 307 306
275 276 308 307
276 277 309 308
277 278 310 309
278 279 311 310
279 280 312 311
280 281 313 312
281 282 314 313
282 283 315 314
283 284 316 315
284 285 317 316
285 286 318 317
286 287 319 318
287 288 320 319
288 257 289 320
289 290 322 321
290 291 323 322
291 292 324 323
292 293 325 324
293 294 326 325
294 295 327 326
295 296 328 327
296 297 329 328
297 298 330 329
298 299 331 330
299 300 332 331
300 301 333 332
301 302 334 333
302 303 335 334
303 304 336 335
304 305 337 336
305 306 338 337
306 307 339 338
307 308 340 339
308 309 341 340
309 310 342 341
310 311 343 342
311 312 344 343
312 313 345 344
313 314 346 345
314 315 347 346
315 316 348 347
316 317 349 348
317 318 350 349
318 319 351 350
319 320 352 351
320 289 321 352
321 322 354 353
322 323 355 354
323 324 356 355
324 325 357 356
325 326 358 357
326 327 359 358
327 328 360 359
328 329 361 360
329 330 362 361
330 331 363 362
331 332 364 363
332 333 365 364
333 334 366 365
334 335 367 366
335 336 368 367
336 337 369 368
337 338 370 369
338 339 371 370
339 340 372 371
340 341 373 372
341 342 374 373
342 343 375 374
343 344 376 375
344 345 377 376
345 346 378 377
346 347 379 378
347 348 380 379
348 349 381 380
349 350 382 381
350 351 383 382
351 352 384 383
352 321 353 384
353 354 386 385
354 355 387 386
355 356 388 387
356 357 389 388
357 358 390 389
358 359 391 390
359 360 392 391
360 361 393 392
361 362 394 393
362 363 395 394
363 364 396 395
364 365 397 396
365 366 398 397
366 367 399 398
367 368 400 399
368 369 401 400
369 370 402 401
370 371 403 402
371 372 404 403
372 373 405 404
373 374 406 405
374 375 407 406
375 376 408 407
376 377 409 408
377 378 410 409
378 379 411 410
379 380 412 411
380 381 413 412
381 382 414 413
382 383 415 414
383 384 416 415
384 353 385 416
385 386 418 417
386 387 419 418
387 388 420 419
388 389 421 420
389 390 422 421
390 391 423 422
391 392 424 423
392 393 425 424
393 394 426 425
394 395 427 426
395 396 428 427
396 397 429 428
397 398 430 429
398 399 431 430
399 400 432 431
400 401 433 432
401 402 434 433
402 403 435 434
403 404 436 435
404 405 437 436
405 406 438 437
406 407 439 438
407 408 440 439
408 409 441 440
409 410 442 441
410 411 443 442
411 412 444 443
412 413 445 444
413 414 446 445
414 415 447 446
415 416 448 447
416 385 417 448
417 418 450 449
418 419 451 450
419 420 452 451
420 421 453 452
421 422 454 453
422 423 455 454
423 424 456 455
424 425 457 456
425 426 458 457
426 427 459 458
427 428 460 459
428 429 461 460
429 430 462 461
430 431 463 462
431 432 464 463
432 433 465 464
433 434 466 465
434 435 467 466
435 436 468 467
436 437 469 468
437 438 470 469
438 439 471 470
439 440 472 471
440 441 473 472
441 442 474 473
442 443 475 474
443 444 476 475
444 445 477 476
445 446 478 477
446 447 479 478
447 448 480 479
448 417 449 480
ZONE T="TRIANGLES", NODES=33, ELEMENTS=32, DATAPACKING=POINT, ZONETYPE=FETRIANGLE
0 -1 0
0.195092 -0.980785 0
0.191344 -0.980785 0.0380606
0.180242 -0.980785 0.0746586
0.162213 -0.980785 0.108387
0.137951 -0.980785 0.137951
0.108388 -0.980785 0.162213
0.0746588 -0.980785 0.180242
0.0380608 -0.980785 0.191344
2.24041e-07 -0.980785 0.195092
-0.0380604 -0.980785 0.191344
-0.0746584 -0.980785 0.180242
-0.108387 -0.980785 0.162214
-0.137951 -0.980785 0.137951
-0.162213 -0.980785 0.108388
-0.180242 -0.980785 0.074659
-0.191344 -0.980785 0.0380611
-0.195092 -0.980785 4.48081e-07
-0.191344 -0.980785 -0.0380602
-0.180242 -0.980785 -0.0746582
-0.162214 -0.980785 -0.108387
-0.137952 -0.980785 -0.137951
-0.108388 -0.980785 -0.162213
-0.0746592 -0.980785 -0.180242
-0.0380613 -0.980785 -0.191344
-6.48865e-07 -0.980785 -0.195092
0.0380599 -0.980785 -0.191344
0.074658 -0.980785 -0.180242
0.108387 -0.980785 -0.162214
0.137951 -0.980785 -0.137952
0.162213 -0.980785 -0.108388
0.180242 -0.980785 -0.0746594
0.191344 -0.980785 -0.0380615
1 2 3
1 3 4
1 4 5
1 5 6
1 6 7
1 7 8
1 8 9
1 9 10
1 10 11
1 11 12
1 12 13
1 13 14
1 14 15
1 15 16
1 16 17
1 17 18
1 18 19
1 19 20
1 20 21
1 21 22
1 22 23
1 23 24
1 24 25
1 25 26
1 26 27
1 27 28
1 28 29
1 29 30
1 30 31
1 31 32
1 32 33
1 33 2
